# vtk DataFile Version 3.0
vtk output
ASCII
DATASET UNSTRUCTURED_GRID
POINTS 4000 float
1.500000e+01	-1.500000e+01	0.0	1.500000e+01	1.500000e+01	0.0	-1.500000e+01	1.500000e+01	0.0	-1.500000e+01	-1.500000e+01	0.0	1.500000e+01	-1.497000e+01	0.0	1.500000e+01	-1.494000e+01	0.0	1.500000e+01	-1.491000e+01	0.0	1.500000e+01	-1.488000e+01	0.0	1.500000e+01	-1.485000e+01	0.0	1.500000e+01	-1.482000e+01	0.0	1.500000e+01	-1.479000e+01	0.0	1.500000e+01	-1.476000e+01	0.0	1.500000e+01	-1.473000e+01	0.0	1.500000e+01	-1.470000e+01	0.0	1.500000e+01	-1.467000e+01	0.0	1.500000e+01	-1.464000e+01	0.0	1.500000e+01	-1.461000e+01	0.0	1.500000e+01	-1.458000e+01	0.0	1.500000e+01	-1.455000e+01	0.0	1.500000e+01	-1.452000e+01	0.0	1.500000e+01	-1.449000e+01	0.0	1.500000e+01	-1.446000e+01	0.0	1.500000e+01	-1.443000e+01	0.0	1.500000e+01	-1.440000e+01	0.0	1.500000e+01	-1.437000e+01	0.0	1.500000e+01	-1.434000e+01	0.0	1.500000e+01	-1.431000e+01	0.0	1.500000e+01	-1.428000e+01	0.0	1.500000e+01	-1.425000e+01	0.0	1.500000e+01	-1.422000e+01	0.0	1.500000e+01	-1.419000e+01	0.0	1.500000e+01	-1.416000e+01	0.0	1.500000e+01	-1.413000e+01	0.0	1.500000e+01	-1.410000e+01	0.0	1.500000e+01	-1.407000e+01	0.0	1.500000e+01	-1.404000e+01	0.0	1.500000e+01	-1.401000e+01	0.0	1.500000e+01	-1.398000e+01	0.0	1.500000e+01	-1.395000e+01	0.0	1.500000e+01	-1.392000e+01	0.0	1.500000e+01	-1.389000e+01	0.0	1.500000e+01	-1.386000e+01	0.0	1.500000e+01	-1.383000e+01	0.0	1.500000e+01	-1.380000e+01	0.0	1.500000e+01	-1.377000e+01	0.0	1.500000e+01	-1.374000e+01	0.0	1.500000e+01	-1.371000e+01	0.0	1.500000e+01	-1.368000e+01	0.0	1.500000e+01	-1.365000e+01	0.0	1.500000e+01	-1.362000e+01	0.0	1.500000e+01	-1.359000e+01	0.0	1.500000e+01	-1.356000e+01	0.0	1.500000e+01	-1.353000e+01	0.0	1.500000e+01	-1.350000e+01	0.0	1.500000e+01	-1.347000e+01	0.0	1.500000e+01	-1.344000e+01	0.0	1.500000e+01	-1.341000e+01	0.0	1.500000e+01	-1.338000e+01	0.0	1.500000e+01	-1.335000e+01	0.0	1.500000e+01	-1.332000e+01	0.0	1.500000e+01	-1.329000e+01	0.0	1.500000e+01	-1.326000e+01	0.0	1.500000e+01	-1.323000e+01	0.0	1.500000e+01	-1.320000e+01	0.0	1.500000e+01	-1.317000e+01	0.0	1.500000e+01	-1.314000e+01	0.0	1.500000e+01	-1.311000e+01	0.0	1.500000e+01	-1.308000e+01	0.0	1.500000e+01	-1.305000e+01	0.0	1.500000e+01	-1.302000e+01	0.0	1.500000e+01	-1.299000e+01	0.0	1.500000e+01	-1.296000e+01	0.0	1.500000e+01	-1.293000e+01	0.0	1.500000e+01	-1.290000e+01	0.0	1.500000e+01	-1.287000e+01	0.0	1.500000e+01	-1.284000e+01	0.0	1.500000e+01	-1.281000e+01	0.0	1.500000e+01	-1.278000e+01	0.0	1.500000e+01	-1.275000e+01	0.0	1.500000e+01	-1.272000e+01	0.0	1.500000e+01	-1.269000e+01	0.0	1.500000e+01	-1.266000e+01	0.0	1.500000e+01	-1.263000e+01	0.0	1.500000e+01	-1.260000e+01	0.0	1.500000e+01	-1.257000e+01	0.0	1.500000e+01	-1.254000e+01	0.0	1.500000e+01	-1.251000e+01	0.0	1.500000e+01	-1.248000e+01	0.0	1.500000e+01	-1.245000e+01	0.0	1.500000e+01	-1.242000e+01	0.0	1.500000e+01	-1.239000e+01	0.0	1.500000e+01	-1.236000e+01	0.0	1.500000e+01	-1.233000e+01	0.0	1.500000e+01	-1.230000e+01	0.0	1.500000e+01	-1.227000e+01	0.0	1.500000e+01	-1.224000e+01	0.0	1.500000e+01	-1.221000e+01	0.0	1.500000e+01	-1.218000e+01	0.0	1.500000e+01	-1.215000e+01	0.0	1.500000e+01	-1.212000e+01	0.0	1.500000e+01	-1.209000e+01	0.0	1.500000e+01	-1.206000e+01	0.0	1.500000e+01	-1.203000e+01	0.0	1.500000e+01	-1.200000e+01	0.0	1.500000e+01	-1.197000e+01	0.0	1.500000e+01	-1.194000e+01	0.0	1.500000e+01	-1.191000e+01	0.0	1.500000e+01	-1.188000e+01	0.0	1.500000e+01	-1.185000e+01	0.0	1.500000e+01	-1.182000e+01	0.0	1.500000e+01	-1.179000e+01	0.0	1.500000e+01	-1.176000e+01	0.0	1.500000e+01	-1.173000e+01	0.0	1.500000e+01	-1.170000e+01	0.0	1.500000e+01	-1.167000e+01	0.0	1.500000e+01	-1.164000e+01	0.0	1.500000e+01	-1.161000e+01	0.0	1.500000e+01	-1.158000e+01	0.0	1.500000e+01	-1.155000e+01	0.0	1.500000e+01	-1.152000e+01	0.0	1.500000e+01	-1.149000e+01	0.0	1.500000e+01	-1.146000e+01	0.0	1.500000e+01	-1.143000e+01	0.0	1.500000e+01	-1.140000e+01	0.0	1.500000e+01	-1.137000e+01	0.0	1.500000e+01	-1.134000e+01	0.0	1.500000e+01	-1.131000e+01	0.0	1.500000e+01	-1.128000e+01	0.0	1.500000e+01	-1.125000e+01	0.0	1.500000e+01	-1.122000e+01	0.0	1.500000e+01	-1.119000e+01	0.0	1.500000e+01	-1.116000e+01	0.0	1.500000e+01	-1.113000e+01	0.0	1.500000e+01	-1.110000e+01	0.0	1.500000e+01	-1.107000e+01	0.0	1.500000e+01	-1.104000e+01	0.0	1.500000e+01	-1.101000e+01	0.0	1.500000e+01	-1.098000e+01	0.0	1.500000e+01	-1.095000e+01	0.0	1.500000e+01	-1.092000e+01	0.0	1.500000e+01	-1.089000e+01	0.0	1.500000e+01	-1.086000e+01	0.0	1.500000e+01	-1.083000e+01	0.0	1.500000e+01	-1.080000e+01	0.0	1.500000e+01	-1.077000e+01	0.0	1.500000e+01	-1.074000e+01	0.0	1.500000e+01	-1.071000e+01	0.0	1.500000e+01	-1.068000e+01	0.0	1.500000e+01	-1.065000e+01	0.0	1.500000e+01	-1.062000e+01	0.0	1.500000e+01	-1.059000e+01	0.0	1.500000e+01	-1.056000e+01	0.0	1.500000e+01	-1.053000e+01	0.0	1.500000e+01	-1.050000e+01	0.0	1.500000e+01	-1.047000e+01	0.0	1.500000e+01	-1.044000e+01	0.0	1.500000e+01	-1.041000e+01	0.0	1.500000e+01	-1.038000e+01	0.0	1.500000e+01	-1.035000e+01	0.0	1.500000e+01	-1.032000e+01	0.0	1.500000e+01	-1.029000e+01	0.0	1.500000e+01	-1.026000e+01	0.0	1.500000e+01	-1.023000e+01	0.0	1.500000e+01	-1.020000e+01	0.0	1.500000e+01	-1.017000e+01	0.0	1.500000e+01	-1.014000e+01	0.0	1.500000e+01	-1.011000e+01	0.0	1.500000e+01	-1.008000e+01	0.0	1.500000e+01	-1.005000e+01	0.0	1.500000e+01	-1.002000e+01	0.0	1.500000e+01	-9.990000e+00	0.0	1.500000e+01	-9.960000e+00	0.0	1.500000e+01	-9.930000e+00	0.0	1.500000e+01	-9.900000e+00	0.0	1.500000e+01	-9.870000e+00	0.0	1.500000e+01	-9.840000e+00	0.0	1.500000e+01	-9.810000e+00	0.0	1.500000e+01	-9.780000e+00	0.0	1.500000e+01	-9.750000e+00	0.0	1.500000e+01	-9.720000e+00	0.0	1.500000e+01	-9.690000e+00	0.0	1.500000e+01	-9.660000e+00	0.0	1.500000e+01	-9.630000e+00	0.0	1.500000e+01	-9.600000e+00	0.0	1.500000e+01	-9.570000e+00	0.0	1.500000e+01	-9.540000e+00	0.0	1.500000e+01	-9.510000e+00	0.0	1.500000e+01	-9.480000e+00	0.0	1.500000e+01	-9.450000e+00	0.0	1.500000e+01	-9.420000e+00	0.0	1.500000e+01	-9.390000e+00	0.0	1.500000e+01	-9.360000e+00	0.0	1.500000e+01	-9.330000e+00	0.0	1.500000e+01	-9.300000e+00	0.0	1.500000e+01	-9.270000e+00	0.0	1.500000e+01	-9.240000e+00	0.0	1.500000e+01	-9.210000e+00	0.0	1.500000e+01	-9.180000e+00	0.0	1.500000e+01	-9.150000e+00	0.0	1.500000e+01	-9.120000e+00	0.0	1.500000e+01	-9.090000e+00	0.0	1.500000e+01	-9.060000e+00	0.0	1.500000e+01	-9.030000e+00	0.0	1.500000e+01	-9.000000e+00	0.0	1.500000e+01	-8.970000e+00	0.0	1.500000e+01	-8.940000e+00	0.0	1.500000e+01	-8.910000e+00	0.0	1.500000e+01	-8.880000e+00	0.0	1.500000e+01	-8.850000e+00	0.0	1.500000e+01	-8.820000e+00	0.0	1.500000e+01	-8.790000e+00	0.0	1.500000e+01	-8.760000e+00	0.0	1.500000e+01	-8.730000e+00	0.0	1.500000e+01	-8.700000e+00	0.0	1.500000e+01	-8.670000e+00	0.0	1.500000e+01	-8.640000e+00	0.0	1.500000e+01	-8.610000e+00	0.0	1.500000e+01	-8.580000e+00	0.0	1.500000e+01	-8.550000e+00	0.0	1.500000e+01	-8.520000e+00	0.0	1.500000e+01	-8.490000e+00	0.0	1.500000e+01	-8.460000e+00	0.0	1.500000e+01	-8.430000e+00	0.0	1.500000e+01	-8.400000e+00	0.0	1.500000e+01	-8.370000e+00	0.0	1.500000e+01	-8.340000e+00	0.0	1.500000e+01	-8.310000e+00	0.0	1.500000e+01	-8.280000e+00	0.0	1.500000e+01	-8.250000e+00	0.0	1.500000e+01	-8.220000e+00	0.0	1.500000e+01	-8.190000e+00	0.0	1.500000e+01	-8.160000e+00	0.0	1.500000e+01	-8.130000e+00	0.0	1.500000e+01	-8.100000e+00	0.0	1.500000e+01	-8.070000e+00	0.0	1.500000e+01	-8.040000e+00	0.0	1.500000e+01	-8.010000e+00	0.0	1.500000e+01	-7.980000e+00	0.0	1.500000e+01	-7.950000e+00	0.0	1.500000e+01	-7.920000e+00	0.0	1.500000e+01	-7.890000e+00	0.0	1.500000e+01	-7.860000e+00	0.0	1.500000e+01	-7.830000e+00	0.0	1.500000e+01	-7.800000e+00	0.0	1.500000e+01	-7.770000e+00	0.0	1.500000e+01	-7.740000e+00	0.0	1.500000e+01	-7.710000e+00	0.0	1.500000e+01	-7.680000e+00	0.0	1.500000e+01	-7.650000e+00	0.0	1.500000e+01	-7.620000e+00	0.0	1.500000e+01	-7.590000e+00	0.0	1.500000e+01	-7.560000e+00	0.0	1.500000e+01	-7.530000e+00	0.0	1.500000e+01	-7.500000e+00	0.0	1.500000e+01	-7.470000e+00	0.0	1.500000e+01	-7.440000e+00	0.0	1.500000e+01	-7.410000e+00	0.0	1.500000e+01	-7.380000e+00	0.0	1.500000e+01	-7.350000e+00	0.0	1.500000e+01	-7.320000e+00	0.0	1.500000e+01	-7.290000e+00	0.0	1.500000e+01	-7.260000e+00	0.0	1.500000e+01	-7.230000e+00	0.0	1.500000e+01	-7.200000e+00	0.0	1.500000e+01	-7.170000e+00	0.0	1.500000e+01	-7.140000e+00	0.0	1.500000e+01	-7.110000e+00	0.0	1.500000e+01	-7.080000e+00	0.0	1.500000e+01	-7.050000e+00	0.0	1.500000e+01	-7.020000e+00	0.0	1.500000e+01	-6.990000e+00	0.0	1.500000e+01	-6.960000e+00	0.0	1.500000e+01	-6.930000e+00	0.0	1.500000e+01	-6.900000e+00	0.0	1.500000e+01	-6.870000e+00	0.0	1.500000e+01	-6.840000e+00	0.0	1.500000e+01	-6.810000e+00	0.0	1.500000e+01	-6.780000e+00	0.0	1.500000e+01	-6.750000e+00	0.0	1.500000e+01	-6.720000e+00	0.0	1.500000e+01	-6.690000e+00	0.0	1.500000e+01	-6.660000e+00	0.0	1.500000e+01	-6.630000e+00	0.0	1.500000e+01	-6.600000e+00	0.0	1.500000e+01	-6.570000e+00	0.0	1.500000e+01	-6.540000e+00	0.0	1.500000e+01	-6.510000e+00	0.0	1.500000e+01	-6.480000e+00	0.0	1.500000e+01	-6.450000e+00	0.0	1.500000e+01	-6.420000e+00	0.0	1.500000e+01	-6.390000e+00	0.0	1.500000e+01	-6.360000e+00	0.0	1.500000e+01	-6.330000e+00	0.0	1.500000e+01	-6.300000e+00	0.0	1.500000e+01	-6.270000e+00	0.0	1.500000e+01	-6.240000e+00	0.0	1.500000e+01	-6.210000e+00	0.0	1.500000e+01	-6.180000e+00	0.0	1.500000e+01	-6.150000e+00	0.0	1.500000e+01	-6.120000e+00	0.0	1.500000e+01	-6.090000e+00	0.0	1.500000e+01	-6.060000e+00	0.0	1.500000e+01	-6.030000e+00	0.0	1.500000e+01	-6.000000e+00	0.0	1.500000e+01	-5.970000e+00	0.0	1.500000e+01	-5.940000e+00	0.0	1.500000e+01	-5.910000e+00	0.0	1.500000e+01	-5.880000e+00	0.0	1.500000e+01	-5.850000e+00	0.0	1.500000e+01	-5.820000e+00	0.0	1.500000e+01	-5.790000e+00	0.0	1.500000e+01	-5.760000e+00	0.0	1.500000e+01	-5.730000e+00	0.0	1.500000e+01	-5.700000e+00	0.0	1.500000e+01	-5.670000e+00	0.0	1.500000e+01	-5.640000e+00	0.0	1.500000e+01	-5.610000e+00	0.0	1.500000e+01	-5.580000e+00	0.0	1.500000e+01	-5.550000e+00	0.0	1.500000e+01	-5.520000e
[...]
POINT_DATA 4000

SCALARS Conservative_1 float 1
LOOKUP_TABLE default
-2.432243e-01	-2.393816e-01	-5.239701e-01	-5.250825e-01	-2.308842e-01	-2.275910e-01	-2.259659e-01	-2.248235e-01	-2.238268e-01	-2.230665e-01	-2.223237e-01	-2.215975e-01	-2.209663e-01	-2.204742e-01	-2.201000e-01	-2.197273e-01	-2.193316e-01	-2.191626e-01	-2.189564e-01	-2.186089e-01	-2.182559e-01	-2.179954e-01	-2.176807e-01	-2.173170e-01	-2.171409e-01	-2.168944e-01	-2.165897e-01	-2.163760e-01	-2.162349e-01	-2.161493e-01	-2.160175e-01	-2.157488e-01	-2.154457e-01	-2.151568e-01	-2.150240e-01	-2.149345e-01	-2.148185e-01	-2.147536e-01	-2.146728e-01	-2.145809e-01	-2.144904e-01	-2.142904e-01	-2.140905e-01	-2.139934e-01	-2.139081e-01	-2.137969e-01	-2.137487e-01	-2.136605e-01	-2.135536e-01	-2.134205e-01	-2.131978e-01	-2.130653e-01	-2.130092e-01	-2.130169e-01	-2.129719e-01	-2.128075e-01	-2.127166e-01	-2.126629e-01	-2.126013e-01	-2.125329e-01	-2.124894e-01	-2.123925e-01	-2.122417e-01	-2.121991e-01	-2.121350e-01	-2.120120e-01	-2.119790e-01	-2.119347e-01	-2.118416e-01	-2.117074e-01	-2.115425e-01	-2.115225e-01	-2.115464e-01	-2.115489e-01	-2.114477e-01	-2.113143e-01	-2.112312e-01	-2.110606e-01	-2.109442e-01	-2.108836e-01	-2.107444e-01	-2.106509e-01	-2.106385e-01	-2.107261e-01	-2.107510e-01	-2.107091e-01	-2.106354e-01	-2.105949e-01	-2.106751e-01	-2.105956e-01	-2.103650e-01	-2.102222e-01	-2.101794e-01	-2.101603e-01	-2.101011e-01	-2.100669e-01	-2.099855e-01	-2.097817e-01	-2.096939e-01	-2.097070e-01	-2.096805e-01	-2.097127e-01	-2.097497e-01	-2.096559e-01	-2.095700e-01	-2.095473e-01	-2.094901e-01	-2.093841e-01	-2.093765e-01	-2.093110e-01	-2.091701e-01	-2.090862e-01	-2.090380e-01	-2.089829e-01	-2.088950e-01	-2.088323e-01	-2.088157e-01	-2.087628e-01	-2.088124e-01	-2.087950e-01	-2.086528e-01	-2.085357e-01	-2.084815e-01	-2.084853e-01	-2.084823e-01	-2.083830e-01	-2.083232e-01	-2.082977e-01	-2.082008e-01	-2.080481e-01	-2.079847e-01	-2.079683e-01	-2.078640e-01	-2.077357e-01	-2.076595e-01	-2.076152e-01	-2.075899e-01	-2.076530e-01	-2.076742e-01	-2.076324e-01	-2.075863e-01	-2.074078e-01	-2.072466e-01	-2.072180e-01	-2.071812e-01	-2.070591e-01	-2.069450e-01	-2.069610e-01	-2.069488e-01	-2.068649e-01	-2.068373e-01	-2.068033e-01	-2.067798e-01	-2.067478e-01	-2.066454e-01	-2.066527e-01	-2.067299e-01	-2.067948e-01	-2.067365e-01	-2.066569e-01	-2.067089e-01	-2.066943e-01	-2.065135e-01	-2.064641e-01	-2.064206e-01	-2.064305e-01	-2.064435e-01	-2.064276e-01	-2.063590e-01	-2.062123e-01	-2.060782e-01	-2.059892e-01	-2.060188e-01	-2.059581e-01	-2.057525e-01	-2.056088e-01	-2.055707e-01	-2.056205e-01	-2.056398e-01	-2.055461e-01	-2.054051e-01	-2.052910e-01	-2.052356e-01	-2.052042e-01	-2.051274e-01	-2.051490e-01	-2.052489e-01	-2.052623e-01	-2.052602e-01	-2.052255e-01	-2.051341e-01	-2.050151e-01	-2.049599e-01	-2.048944e-01	-2.047576e-01	-2.046257e-01	-2.045342e-01	-2.045016e-01	-2.044782e-01	-2.044286e-01	-2.043759e-01	-2.043114e-01	-2.043560e-01	-2.043584e-01	-2.042658e-01	-2.042295e-01	-2.042567e-01	-2.042841e-01	-2.042628e-01	-2.042020e-01	-2.040071e-01	-2.039348e-01	-2.038942e-01	-2.038056e-01	-2.037580e-01	-2.036808e-01	-2.036125e-01	-2.035659e-01	-2.035105e-01	-2.034062e-01	-2.033203e-01	-2.033660e-01	-2.033929e-01	-2.033438e-01	-2.033220e-01	-2.032018e-01	-2.030768e-01	-2.030530e-01	-2.030956e-01	-2.030884e-01	-2.030584e-01	-2.030650e-01	-2.030129e-01	-2.029252e-01	-2.028374e-01	-2.027665e-01	-2.027282e-01	-2.026530e-01	-2.025379e-01	-2.025298e-01	-2.025427e-01	-2.024841e-01	-2.024658e-01	-2.024740e-01	-2.024099e-01	-2.023528e-01	-2.023723e-01	-2.023552e-01	-2.022693e-01	-2.022050e-01	-2.021340e-01	-2.020796e-01	-2.020800e-01	-2.020553e-01	-2.019292e-01	-2.018418e-01	-2.018814e-01	-2.018403e-01	-2.016782e-01	-2.015715e-01	-2.015479e-01	-2.015466e-01	-2.015100e-01	-2.015005e-01	-2.014569e-01	-2.013220e-01	-2.012629e-01	-2.012307e-01	-2.011579e-01	-2.011371e-01	-2.011568e-01	-2.011099e-01	-2.010498e-01	-2.010324e-01	-2.009784e-01	-2.008775e-01	-2.008685e-01	-2.008770e-01	-2.008301e-01	-2.007957e-01	-2.007562e-01	-2.007098e-01	-2.006782e-01	-2.006001e-01	-2.004989e-01	-2.003656e-01	-2.002884e-01	-2.002766e-01	-2.002403e-01	-2.002259e-01	-2.002363e-01	-2.002224e-01	-2.001762e-01	-2.001215e-01	-2.000270e-01	-1.999752e-01	-1.999189e-01	-1.998437e-01	-1.998540e-01	-1.998495e-01	-1.997463e-01	-1.996739e-01	-1.996737e-01	-1.996484e-01	-1.995654e-01	-1.995323e-01	-1.994943e-01	-1.994450e-01	-1.994348e-01	-1.993951e-01	-1.993386e-01	-1.993009e-01	-1.993066e-01	-1.992858e-01	-1.992454e-01	-1.992500e-01	-1.992089e-01	-1.990841e-01	-1.989623e-01	-1.988592e-01	-1.988371e-01	-1.988487e-01	-1.988140e-01	-1.988386e-01	-1.988678e-01	-1.988208e-01	-1.987535e-01	-1.986867e-01	-1.986250e-01	-1.985889e-01	-1.985980e-01	-1.985735e-01	-1.984703e-01	-1.983704e-01	-1.983068e-01	-1.983051e-01	-1.982706e-01	-1.981545e-01	-1.980559e-01	-1.980565e-01	-1.981171e-01	-1.980876e-01	-1.979613e-01	-1.978766e-01	-1.978640e-01	-1.978919e-01	-1.978557e-01	-1.977262e-01	-1.976062e-01	-1.975711e-01	-1.975868e-01	-1.975650e-01	-1.975036e-01	-1.975022e-01	-1.975287e-01	-1.975001e-01	-1.974697e-01	-1.974366e-01	-1.973788e-01	-1.973143e-01	-1.972868e-01	-1.972732e-01	-1.972291e-01	-1.971853e-01	-1.971352e-01	-1.970635e-01	-1.970074e-01	-1.969550e-01	-1.968885e-01	-1.968091e-01	-1.968000e-01	-1.967835e-01	-1.967153e-01	-1.966638e-01	-1.966640e-01	-1.966967e-01	-1.967355e-01	-1.967141e-01	-1.966012e-01	-1.965597e-01	-1.965329e-01	-1.964713e-01	-1.964420e-01	-1.964201e-01	-1.964213e-01	-1.963788e-01	-1.963394e-01	-1.963130e-01	-1.962826e-01	-1.962975e-01	-1.962726e-01	-1.962098e-01	-1.961703e-01	-1.960859e-01	-1.959825e-01	-1.959191e-01	-1.958985e-01	-1.958770e-01	-1.958447e-01	-1.958250e-01	-1.957830e-01	-1.956998e-01	-1.956736e-01	-1.956810e-01	-1.956954e-01	-1.956875e-01	-1.956467e-01	-1.956396e-01	-1.956147e-01	-1.955256e-01	-1.954544e-01	-1.954103e-01	-1.953858e-01	-1.953685e-01	-1.953546e-01	-1.953283e-01	-1.952776e-01	-1.952314e-01	-1.951869e-01	-1.951576e-01	-1.951711e-01	-1.951858e-01	-1.951493e-01	-1.951208e-01	-1.951315e-01	-1.950808e-01	-1.949840e-01	-1.949074e-01	-1.948639e-01	-1.948522e-01	-1.948307e-01	-1.947792e-01	-1.946941e-01	-1.946409e-01	-1.946589e-01	-1.946774e-01	-1.946603e-01	-1.946662e-01	-1.946761e-01	-1.946389e-01	-1.945890e-01	-1.945524e-01	-1.945129e-01	-1.944537e-01	-1.944506e-01	-1.944554e-01	-1.944395e-01	-1.944216e-01	-1.943991e-01	-1.943617e-01	-1.943319e-01	-1.943087e-01	-1.942786e-01	-1.942383e-01	-1.942282e-01	-1.942182e-01	-1.941879e-01	-1.941760e-01	-1.941770e-01	-1.941542e-01	-1.941282e-01	-1.941273e-01	-1.941128e-01	-1.941138e-01	-1.941164e-01	-1.940890e-01	-1.940469e-01	-1.940019e-01	-1.939756e-01	-1.939633e-01	-1.939594e-01	-1.939519e-01	-1.939482e-01	-1.939551e-01	-1.939424e-01	-1.938959e-01	-1.938743e-01	-1.938688e-01	-1.938676e-01	-1.938476e-01	-1.938134e-01	-1.937939e-01	-1.937877e-01	-1.937860e-01	-1.937669e-01	-1.937445e-01	-1.937450e-01	-1.937376e-01	-1.937310e-01	-1.937341e-01	-1.937238e-01	-1.937241e-01	-1.937238e-01	-1.937079e-01	-1.936966e-01	-1.936890e-01	-1.936810e-01	-1.936700e-01	-1.936612e-01	-1.936523e-01	-1.936376e-01	-1.936250e-01	-1.936162e-01	-1.936068e-01	-1.935901e-01	-1.935784e-01	-1.935828e-01	-1.935895e-01	-1.935904e-01	-1.935788e-01	-1.935576e-01	-1.935435e-01	-1.935401e-01	-1.935437e-01	-1.935409e-01	-1.935296e-01	-1.935199e-01	-1.935156e-01	-1.935125e-01	-1.935069e-01	-1.935002e-01	-1.934993e-01	-1.935005e-01	-1.934970e-01	-1.934920e-01	-1.934873e-01	-1.934808e-01	-1.934758e-01	-1.934736e-01	-1.934715e-01	-1.934679e-01	-1.934659e-01	-1.934646e-01	-1.934612e-01	-1.934572e-01	-1.934537e-01	-1.934492e-01	-1.934467e-01	-1.934466e-01	-1.934454e-01	-1.934443e-01	-1.934453e-01	-1.934442e-01	-1.934389e-01	-1.934367e-01	-1.934424e-01	-1.934524e-01	-1.934556e-01	-1.934567e-01	-1.934618e-01	-1.934647e-01	-1.934700e-01	-1.934728e-01	-1.934799e-01	-1.934870e-01	-1.934962e-01	-1.935053e-01	-1.934997e-01	-1.934981e-01	-1.935079e-01	-1.935096e-01	-1.935158e-01	-1.935241e-01	-1.935265e-01	-1.935361e-01	-1.935427e-01	-1.935495e-01	-1.935542e-01	-1.935686e-01	-1.935859e-01	-1.935889e-01	-1.936020e-01	-1.936223e-01	-1.936322e-01	-1.936498e-01	-1.936581e-01	-1.936610e-01	-1.936769e-01	-1.936991e-01	-1.937221e-01	-1.937543e-01	-1.937770e-01	-1.937723e-01	-1.937647e-01	-1.937849e-01	-1.937994e-01	-1.938247e-01	-1.938440e-01	-1.938432e-01	-1.938412e-01	-1.938681e-01	-1.938929e-01	-1.938807e-01	-1.938851e-01	-1.939279e-01	-1.939701e-01	-1.939907e-01	-1.939864e-01	-1.939920e-01	-1.940309e-01	-1.940735e-01	-1.940913e-01	-1.940937e-01	-1.941119e-01	-1.941447e-01	-1.941616e-01	-1.941602e-01	-1.941741e-01	-1.941950e-01	-1.942025e-01	-1.942261e-01	-1.942706e-01	-1.942828e-01	-1.942808e-01	-1.942940e-01	-1.943226e-01	-1.943545e-01	-1.943816e-01	-1.943966e-01	-1.944328e-01	-1.944681e-01	-1.944943e-01	-1.945114e-01	-1.945306e-01	-1.945689e-01	-1.945865e-01	-1.945859e-01	-1.946106e-01	-1.946459e-01	-1.946481e-01	-1.946774e-01	-1.946963e-01	-1.947204e-01	-1.947638e-01	-1.947808e-01	-1.947986e-01	-1.948208e-01	-1.948505e-01	-1.948846e-01	-1.949031e-01	-1.949592e-01	-1.949912e-01	-1.950020e-01	-1.950366e-01	-1.950516e-01	-1.950787e-01	-1.951025e-01	-1.951190e-01	-1.951549e-01	-1.951550e-01	-1.951366e-01	-1.951368e-01	-1.951934e-01	-1.952877e-01	-1.953757e-01	-1.954389e-01	-1.954541e-01	-1.954686e-01	-1.955249e-01	-1.955645e-01	-1.955805e-01	-1.956153e-01	-1.956270e-01	-1.956348e-01	-1.956939e-01	-1.957673e-01	-1.957542e-01	-1.957300e-01	-1.957538e-01	-1.957859e-01	-1.958168e-01	-1.958449e-01	-1.959126e-01	-1.959860e-01	-1.960079e-01	-1.960146e-01	-1.960129e-01	-1.960659e-01	-1.961809e-01	-1.962849e-01	-1.963449e-01	-1.963341e-01	-1.963116e-01	-1.963478e-01	-1.964185e-01	-1.964375e-01	-1.964178e-01	-1.964458e-01	-1.965285e-01	-1.965842e-01	-1.965923e-01	-1.966176e-01	-1.966584e-01	-1.966971e-01	-1.967576e-01	-1.968143e-01	-1.968535e-01	-1.968774e-01	-1.969297e-01	-1.970056e-01	-1.970733e-01	-1.971132e-01	-1.971215e-01	-1.971769e-01	-1.972174e-01	-1.971896e-01	-1.972032e-01	-1.973014e-01	-1.973653e-01	-1.974099e-01	-1.974983e-01	-1.975739e-01	-1.975636e-01	-1.975510e-01	-1.975530e-01	-1.974984e-01	-1.975167e-01	-1.976147e-01	-1.976537e-01	-1.976882e-01	-1.977738e-01	-1.978561e-01	-1.979430e-01	-1.979931e-01	-1.980213e-01	-1.980390e-01	-1.980783e-01	-1.981770e-01	-1.982374e-01	-1.982904e-01	-1.983081e-01	-1.983315e-01	-1.984260e-01	-1.985176e-01	-1.985655e-01	-1.985594e-01	-1.986009e-01	-1.986833e-01	-1.986842e-01	-1.987283e-01	-1.988029e-01	-1.988238e-01	-1.988815e-01	-1.988820e-01	-1.988606e-01	-1.988921e-01	-1.989679e-01	-1.990855e-01	-1.992191e-01	-1.992806e-01	-1.992618e-01	-1.992895e-01	-1.994000e-01	-1.994663e-01	-1.994787e-01	-1.995003e-01	-1.996498e-01	-1.996877e-01	-1.996558e-01	-1.996377e-01	-1.996276e-01	-1.997033e-01	-1.998736e-01	-2.000349e-01	-2.001471e-01	-2.001720e-01	-2.001421e-01	-2.001136e-01	-2.001832e-01	-2.002744e-01	-2.002707e-01	-2.003407e-01	-2.004782e-01	-2.005803e-01	-2.006240e-01	-2.006618e-01	-2.007014e-01	-2.006934e-01	-2.007562e-01	-2.008577e-01	-2.009239e-01	-2.009657e-01	-2.010115e-01	-2.010470e-01	-2.010627e-01	-2.010919e-01	-2.011284e-01	-2.012176e-01	-2.013260e-01	-2.013673e-01	-2.014117e-01	-2.014763e-01	-2.014567e-01	-2.014512e-01	-2.014688e-01	-2.015065e-01	-2.016104e-01	-2.016806e-01	-2.017191e-01	-2.017649e-01	-2.018564e-01	-2.019993e-01	-2.020279e-01	-2.020622e-01	-2.020966e-01	-2.020413e-01	-2.020540e-01	-2.021760e-01	-2.023474e-01	-2.024093e-01	-2.024374e-01	-2.025363e-01	-2.025743e-01	-2.026373e-01	-2.027127e-01	-2.027889e-01	-2.029006e-01	-2.029362e-01	-2.029169e-01	-2.029066e-01	-2.030045e-01	-2.031745e-01	-2.032252e-01	-2.032743e-01	-2.033128e-01	-2.032655e-01	-2.032786e-01	-2.032700e-01	-2.032436e-01	-2.033094e-01	-2.033898e-01	-2.034489e-01	-2.034927e-01	-2.035548e-01	-2.035834e-01	-2.036796e-01	-2.038666e-01	-2.040254e-01	-2.040893e-01	-2.041604e-01	-2.042575e-01	-2.042504e-01	-2.042664e-01	-2.043095e-01	-2.042797e-01	-2.043009e-01	-2.044639e-01	-2.046168e-01	-2.046695e-01	-2.046450e-01	-2.046554e-01	-2.047589e-01	-2.048762e-01	-2.049042e-01	-2.049095e-01	-2.049754e-01	-2.050797e-01	-2.050844e-01	-2.050270e-01	-2.050413e-01	-2.051110e-01	-2.051370e-01	-2.052483e-01	-2.054163e-01	-2.054953e-01	-2.055307e-01	-2.055838e-01	-2.056261e-01	-2.056267e-01	-2.056460e-01	-2.056549e-01	-2.056731e-01	-2.057165e-01	-2.057021e-01	-2.056992e-01	-2.057883e-01	-2.057981e-01	-2.058401e-01	-2.059354e-01	-2.061025e-01	-2.062745e-01	-2.063998e-01	-2.065692e-01	-2.066169e-01	-2.066487e-01	-2.067597e-01	-2.067782e-01	-2.068760e-01	-2.070076e-01	-2.070227e-01	-2.069971e-01	-2.070268e-01	-2.070990e-01	-2.070883e-01	-2.071675e-01	-2.073538e-01	-2.074042e-01	-2.073778e-01	-2.074359e-01	-2.075516e-01	-2.076501e-01	-2.077161e-01	-2.077113e-01	-2.076406e-01	-2.076679e-01	-2.077941e-01	-2.078032e-01	-2.078636e-01	-2.080723e-01	-2.081053e-01	-2.080880e-01	-2.080526e-01	-2.079855e-01	-2.079822e-01	-2.080677e-01	-2.082235e-01	-2.083009e-01	-2.083823e-01	-2.083757e-01	-2.084105e-01	-2.085946e-01	-2.087776e-01	-2.088429e-01	-2.088070e-01	-2.088196e-01	-2.089708e-01	-2.091512e-01	-2.092198e-01	-2.092640e-01	-2.094295e-01	-2.096313e-01	-2.097447e-01	-2.097915e-01	-2.098522e-01	-2.099236e-01	-2.099601e-01	-2.100251e-01	-2.100898e-01	-2.101260e-01	-2.101036e-01	-2.101269e-01	-2.101944e-01	-2.102543e-01	-2.103187e-01	-2.104074e-01	-2.105895e-01	-2.108043e-01	-2.109651e-01	-2.110158e-01	-2.110121e-01	-2.110410e-01	-2.110697e-01	-2.110219e-01	-2.110221e-01	-2.111118e-01	-2.112327e-01	-2.114095e-01	-2.115504e-01	-2.116042e-01	-2.118697e-01	-2.119626e-01	-2.119144e-01	-2.118716e-01	-2.119883e-01	-2.121254e-01	-2.121043e-01	-2.122620e-01	-2.124670e-01	-2.125295e-01	-2.126875e-01	-2.128456e-01	-2.130787e-01	-2.133248e-01	-2.134301e-01	-2.134600e-01	-2.135345e-01	-2.138594e-01	-2.139781e-01	-2.140363e-01	-2.142995e-01	-2.145039e-01	-2.147023e-01	-2.148913e-01	-2.151580e-01	-2.154796e-01	-2.156900e-01	-2.158992e-01	-2.161591e-01	-2.164639e-01	-2.167739e-01	-2.170262e-01	-2.174145e-01	-2.179126e-01	-2.183454e-01	-2.187561e-01	-2.190776e-01	-2.196210e-01	-2.204025e-01	-2.212957e-01	-2.224155e-01	-2.237487e-01	-2.254182e-01	-2.281576e-01	-6.621559e-01	-6.454087e-01	-6.219943e-01	-6.116869e-01	-6.070202e-01	-6.037974e-01	-6.005833e-01	-5.982941e-01	-5.960341e-01	-5.938552e-01	-5.917932e-01	-5.899706e-01	-5.879186e-01	-5.860058e-01	-5.844373e-01	-5.830332e-01	-5.817205e-01	-5.805192e-01	-5.795042e-01	-5.785498e-01	-5.778005e-01	-5.772109e-01	-5.764185e-01	-5.757331e-01	-5.750653e-01	-5.743236e-01	-5.736763e-01	-5.731813e-01	-5.726949e-01	-5.721558e-01	-5.718058e-01	-5.715403e-01	-5.709602e-01	-5.704523e-01	-5.698727e-01	-5.693270e-01	-5.689160e-01	-5.685814e-01	-5.682488e-01	-5.679347e-01	-5.677634e-01	-5.675557e-01	-5.671022e-01	-5.665124e-01	-5.659685e-01	-5.655609e-01	-5.651868e-01	-5.647333e-01	-5.645614e-01	-5.644184e-01	-5.642561e-01	-5.640160e-01	-5.637175e-01	-5.633705e-01	-5.631724e-01	-5.631220e-01	-5.630733e-01	-5.627807e-01	-5.624107e-01	-5.620648e-01	-5.618694e-01	-5.617902e-01	-5.616060e-01	-5.612112e-01	-5.605749e-01	-5.601660e-01	-5.599612e-01	-5.599159e-01	-5.597563e-01	-5.595586e-01	-5.595362e-01	-5.596072e-01	-5.592972e-01	-5.589319e-01	-5.585217e-01	-5.583675e-01	-5.581504e-01	-5.578159e-01	-5.574055e-01	-5.569596e-01	-5.566402e-01	-5.564553e-01	-5.561861e-01	-5.556778e-01	-5.550246e-01	-5.547292e-01	-5.544480e-01	-5.540824e-01	-5.536036e-01	-5.530262e-01	-5.525812e-01	-5.521354e-01	-5.517797e-01	-5.515327e-01	-5.512022e-01	-5.508155e-01	-5.499851e-01	-5.495685e-01	-5.492496e-01	-5.487800e-01	-5.478252e-01	-5.470970e-01	-5.464536e-01	-5.456648e-01	-5.451152e-01	-5.446886e-01	-5.441725e-01	-5.437209e-01	-5.431692e-01	-5.423628e-01	-5.418055e-01	-5.415123e-01	-5.412170e-01	-5.404745e-01	-5.398676e-01	-5.393739e-01	-5.387339e-01	-5.380647e-01	-5.373654e-01	-5.367683e-01	-5.363571e-01	-5.361996e-01	-5.359625e-01	-5.352927e-01	-5.347389e-01	-5.342607e-01	-5.335812e-01	-5.327384e-01	-5.319897e-01	-5.315617e-01	-5.312584e-01	-5.309134e-01	-5.303100e-01	-5.299370e-01	-5.296581e-01	-5.293944e-01	-5.290742e-01	-5.286671e-01	-5.280570e-01	-5.276069e-01	-5.271199e-01	-5.266337e-01	-5.261469e-01	-5.256453e-01	-5.252130e-01	-5.249163e-01	-5.246369e-01	-5.241580e-01	-5.235364e-01	-5.232588e-01	-5.230091e-01	-5.227215e-01	-5.222996e-01	-5.218250e-01	-5.214826e-01	-5.211794e-01	-5.207803e-01	-5.203494e-01	-5.198724e-01	-5.197859e-01	-5.196156e-01	-5.192354e-01	-5.187834e-01	-5.183391e-01	-5.180078e-01	-5.177365e-01	-5.173839e-01	-5.168649e-01	-5.163008e-01	-5.160035e-01	-5.157565e-01	-5.156120e-01	-5.153754e-01	-5.149647e-01	-5.146507e-01	-5.143419e-01	-5.141287e-01	-5.140792e-01	-5.142060e-01	-5.142069e-01	-5.137786e-01	-5.135805e-01	-5.131925e-01	-5.127603e-01	-5.125251e-01	-5.124333e-01	-5.121297e-01	-5.114845e-01	-5.109987e-01	-5.106808e-01	-5.103350e-01	-5.100622e-01	-5.097488e-01	-5.092410e-01	-5.089939e-01	-5.090815e-01	-5.090756e-01	-5.086494e-01	-5.083841e-01	-5.082053e-01	-5.079024e-01	-5.074184e-01	-5.069889e-01	-5.068345e-01	-5.067664e-01	-5.065586e-01	-5.063421e-01	-5.061077e-01	-5.059988e-01	-5.058382e-01	-5.054487e-01	-5.048911e-01	-5.044376e-01	-5.044548e-01	-5.045954e-01	-5.045025e-01	-5.042887e-01	-5.040959e-01	-5.038756e-01	-5.036031e-01	-5.033323e-01	-5.030956e-01	-5.027086e-01	-5.024119e-01	-5.020839e-01	-5.017476e-01	-5.013938e-01	-5.010004e-01	-5.007381e-01	-5.006030e-01	-5.004465e-01	-5.001039e-01	-4.994732e-01	-4.991239e-01	-4.990585e-01	-4.991712e-01	-4.991472e-01	-4.991640e-01	-4.994705e-01	-4.997183e-01	-4.995517e-01	-4.993019e-01	-4.989838e-01	-4.989224e-01	-4.988410e-01	-4.986457e-01	-4.983690e-01	-4.981929e-01	-4.982225e-01	-4.980849e-01	-4.979575e-01	-4.977553e-01	-4.974035e-01	-4.973029e-01	-4.972950e-01	-4.972456e-01	-4.970680e-01	-4.967880e-01	-4.965929e-01	-4.963646e-01	-4.961696e-01	-4.962035e-01	-4.963868e-01	-4.965198e-01	-4.961707e-01	-4.961190e-01	-4.959628e-01	-4.960310e-01	-4.963223e-01	-4.964639e-01	-4.962758e-01	-4.962137e-01	-4.960433e-01	-4.961119e-01	-4.960405e-01	-4.955489e-01	-4.950582e-01	-4.950451e-01	-4.953374e-01	-4.957154e-01	-4.958695e-01	-4.954569e-01	-4.954503e-01	-4.955247e-01	-4.954915e-01	-4.953964e-01	-4.952170e-01	-4.952339e-01	-4.954564e-01	-4.954767e-01	-4.952086e-01	-4.951287e-01	-4.949975e-01	-4.952703e-01	-4.953267e-01	-4.953342e-01	-4.951565e-01	-4.950444e-01	-4.950854e-01	-4.950321e-01	-4.948550e-01	-4.947290e-01	-4.949734e-01	-4.952341e-01	-4.954300e-01	-4.954367e-01	-4.951632e-01	-4.952079e-01	-4.951362e-01	-4.948516e-01	-4.944950e-01	-4.940520e-01	-4.937249e-01	-4.935874e-01	-4.933893e-01	-4.929259e-01	-4.923398e-01	-4.922165e-01	-4.920720e-01	-4.921092e-01	-4.920177e-01	-4.917812e-01	-4.915293e-01	-4.912758e-01	-4.909464e-01	-4.906039e-01	-4.901531e-01	-4.902393e-01	-4.900669e-01	-4.897235e-01	-4.893636e-01	-4.891654e-01	-4.890721e-01	-4.886488e-01	-4.882547e-01	-4.877754e-01	-4.871431e-01	-4.869402e-01	-4.866690e-01	-4.862876e-01	-4.858455e-01	-4.852501e-01	-4.845934e-01	-4.837989e-01	-4.830964e-01	-4.828792e-01	-4.827113e-01	-4.824415e-01	-4.813809e-01	-4.805119e-01	-4.796065e-01	-4.784704e-01	-4.772978e-01	-4.763632e-01	-4.757802e-01	-4.749574e-01	-4.744361e-01	-4.744949e-01	-4.741288e-01	-4.731290e-01	-4.724960e-01	-4.715478e-01	-4.707023e-01	-4.700111e-01	-4.694216e-01	-4.685835e-01	-4.676222e-01	-4.670870e-01	-4.662530e-01	-4.649246e-01	-4.635319e-01	-4.626405e-01	-4.621713e-01	-4.615536e-01	-4.608145e-01	-4.600709e-01	-4.594821e-01	-4.588640e-01	-4.579106e-01	-4.566000e-01	-4.553750e-01	-4.547512e-01	-4.543413e-01	-4.538051e-01	-4.532515e-01	-4.524404e-01	-4.515393e-01	-4.507635e-01	-4.499678e-01	-4.490670e-01	-4.480180e-01	-4.472585e-01	-4.462504e-01	-4.452327e-01	-4.443335e-01	-4.433137e-01	-4.422268e-01	-4.412510e-01	-4.403667e-01	-4.393080e-01	-4.382242e-01	-4.373162e-01	-4.365521e-01	-4.359666e-01	-4.352969e-01	-4.346254e-01	-4.341428e-01	-4.336149e-01	-4.326905e-01	-4.317630e-01	-4.307657e-01	-4.301958e-01	-4.293639e-01	-4.284451e-01	-4.276123e-01	-4.268760e-01	-4.261465e-01	-4.251781e-01	-4.242812e-01	-4.233272e-01	-4.223056